 Gaussian 16, Revision C.01,
 Gaussian 16:  ES64L-G16RevC.01  3-Jul-2019

 ------------------------------------------------------------
 # opt freq CAM-B3LYP/6-311g(d,p) scrf=(solvent=acetonitrile)
 ------------------------------------------------------------

 ---------
 trans-CAM
 ---------
 Symbolic Z-matrix:
 Charge =  0 Multiplicity = 1

 SCF Done:  E(RCAM-B3LYP) =  -722.540801157     A.U. after   14 cycles
 SCF Done:  E(RCAM-B3LYP) =  -722.557974529     A.U. after   13 cycles
 SCF Done:  E(RCAM-B3LYP) =  -722.558757254     A.U. after   12 cycles
 SCF Done:  E(RCAM-B3LYP) =  -722.559234974     A.U. after   12 cycles
 SCF Done:  E(RCAM-B3LYP) =  -722.559454953     A.U. after   12 cycles
 SCF Done:  E(RCAM-B3LYP) =  -722.559632627     A.U. after   12 cycles
 SCF Done:  E(RCAM-B3LYP) =  -722.560238406     A.U. after   12 cycles
 SCF Done:  E(RCAM-B3LYP) =  -722.560762105     A.U. after   12 cycles
 SCF Done:  E(RCAM-B3LYP) =  -722.560340545     A.U. after   14 cycles
 SCF Done:  E(RCAM-B3LYP) =  -722.560976683     A.U. after   11 cycles
 SCF Done:  E(RCAM-B3LYP) =  -722.561008039     A.U. after   12 cycles
 SCF Done:  E(RCAM-B3LYP) =  -722.561018159     A.U. after    9 cycles
 SCF Done:  E(RCAM-B3LYP) =  -722.561019212     A.U. after    9 cycles
 SCF Done:  E(RCAM-B3LYP) =  -722.561019316     A.U. after    7 cycles
 SCF Done:  E(RCAM-B3LYP) =  -722.561019337     A.U. after    6 cycles
 Optimization completed.
    -- Stationary point found.
 Normal termination of Gaussian 16 at Tue Apr 19 16:05:33 2022.

 ----------------------------------------------------------------------
 #N Geom=AllCheck Guess=TCheck SCRF=Check GenChk RCAM-B3LYP/6-311G(d,p)
  Freq
 ----------------------------------------------------------------------

 Structure from the checkpoint file:  "trans.chk"
 ---------
 trans-CAM
 ---------
 Charge =  0 Multiplicity = 1

                         Standard orientation:
 ---------------------------------------------------------------------
 Center     Atomic      Atomic             Coordinates (Angstroms)
 Number     Number       Type             X           Y           Z
 ---------------------------------------------------------------------
      1          7           0       -0.942165   -0.500129    0.000254
      2          7           0       -1.678960    0.508989   -0.000176
      3          7           0        4.599051    0.120094    0.000155
      4          6           0        5.213157    1.436775   -0.000934
      5          6           0        5.447005   -1.059021    0.000660
      6          6           0        0.433361   -0.266532    0.000139
      7          6           0        1.034531    0.999808   -0.000622
      8          6           0        1.256991   -1.393981    0.000810
      9          6           0        2.400466    1.129916   -0.000670
     10          6           0        2.629005   -1.281741    0.000780
     11          6           0        3.246505   -0.009962    0.000093
     12          6           0       -3.066686    0.215614   -0.000106
     13          6           0       -3.617243   -1.064475   -0.001410
     14          6           0       -3.932005    1.302039    0.001189
     15          6           0       -4.994555   -1.186297   -0.001268
     16          6           0       -5.298373    1.068463    0.001249
     17          7           0       -5.837227   -0.149398    0.000044
     18          1           0        4.932788    2.013902    0.885194
     19          1           0        6.293611    1.322796   -0.000359
     20          1           0        4.933523    2.012163   -0.888435
     21          1           0        5.277782   -1.677578   -0.885886
     22          1           0        6.487819   -0.747528    0.000993
     23          1           0        5.277158   -1.677175    0.887349
     24          1           0        0.404467    1.878791   -0.001196
     25          1           0        0.790031   -2.371611    0.001355
     26          1           0        2.829647    2.120940   -0.001338
     27          1           0        3.228611   -2.179575    0.001282
     28          1           0       -2.978319   -1.935353   -0.002514
     29          1           0       -3.533823    2.308207    0.002149
     30          1           0       -5.449294   -2.171896   -0.002282
     31          1           0       -5.991840    1.903386    0.002294
 ---------------------------------------------------------------------

 SCF Done:  E(RCAM-B3LYP) =  -722.561019337     A.U. after    1 cycles

 The electronic state is 1-A.
 Alpha  occ. eigenvalues --  -14.44066 -14.42787 -14.41662 -14.38507 -10.30422
 Alpha  occ. eigenvalues --  -10.29504 -10.28435 -10.28390 -10.27386 -10.27369
 Alpha  occ. eigenvalues --  -10.26951 -10.25756 -10.25633 -10.25626 -10.25508
 Alpha  occ. eigenvalues --  -10.24881 -10.24582  -1.12929  -1.04994  -1.03661
 Alpha  occ. eigenvalues --   -0.95473  -0.91353  -0.85465  -0.85215  -0.84576
 Alpha  occ. eigenvalues --   -0.80967  -0.79414  -0.73760  -0.71565  -0.69911
 Alpha  occ. eigenvalues --   -0.67932  -0.64909  -0.61905  -0.59590  -0.58090
 Alpha  occ. eigenvalues --   -0.56347  -0.54600  -0.54520  -0.52653  -0.52134
 Alpha  occ. eigenvalues --   -0.51671  -0.51334  -0.50212  -0.50152  -0.47918
 Alpha  occ. eigenvalues --   -0.47734  -0.47619  -0.46822  -0.45644  -0.45073
 Alpha  occ. eigenvalues --   -0.44154  -0.42905  -0.40774  -0.37543  -0.33387
 Alpha  occ. eigenvalues --   -0.33280  -0.32840  -0.32497  -0.30372  -0.25041
 Alpha virt. eigenvalues --   -0.05117   0.02653   0.03107   0.04344   0.08369
 Alpha virt. eigenvalues --    0.09402   0.10128   0.10750   0.11402   0.11971
 Alpha virt. eigenvalues --    0.12854   0.13891   0.15468   0.16184   0.16701

 Mulliken charges:
               1
     1  N   -0.173638
     2  N   -0.219280
     3  N   -0.463132
     4  C   -0.182522
     5  C   -0.183029
     6  C   -0.024164
     7  C   -0.045145
     8  C   -0.064281
     9  C   -0.164385
    10  C   -0.168476
    11  C    0.274495
    12  C    0.118185
    13  C   -0.138124
    14  C   -0.170284
    15  C    0.036610
    16  C    0.042904
    17  N   -0.315939
    18  H    0.135808
    19  H    0.135153
    20  H    0.135810
    21  H    0.135543
    22  H    0.134957
    23  H    0.135544
    24  H    0.118427
    25  H    0.118441
    26  H    0.138689
    27  H    0.136160
    28  H    0.126245
    29  H    0.124376
    30  H    0.132670
    31  H    0.132381
 Sum of Mulliken charges =  -0.00000

 Dipole moment (field-independent basis, Debye):
    X=              9.8303    Y=              0.4879    Z=             -0.0008  Tot=              9.8424
 Quadrupole moment (field-independent basis, Debye-Ang):
   XX=            -87.9048   YY=            -87.4173   ZZ=           -104.7618
   XY=             -1.4558   XZ=             -0.0016   YZ=              0.0043

  Exact polarizability:     532.571     -11.254     231.088      -0.012       0.023     103.059
 Approx polarizability:     379.194     -10.891     222.694      -0.007       0.022     109.315

                      1                      2                      3
                      A                      A                      A
 Frequencies --     13.6446                37.5249                66.1562
 Red. masses --      3.4380                 5.0774                 5.2163
 Frc consts  --      0.0004                 0.0042                 0.0135
 IR Inten    --      0.0625                 1.2117                 1.8564

                      4                      5                      6
                      A                      A                      A
 Frequencies --     76.7331                80.4571                95.2003
 Red. masses --      2.3073                 2.7697                 2.9387
 Frc consts  --      0.0080                 0.0106                 0.0157
 IR Inten    --      3.0695                 0.1548                 0.0190

                      7                      8                      9
                      A                      A                      A
 Frequencies --    154.9739               184.0270               202.8309
 Red. masses --      2.4584                 5.2320                 1.1345
 Frc consts  --      0.0348                 0.1044                 0.0275
 IR Inten    --      0.0663                 3.3518                 0.0250

                     10                     11                     12
                      A                      A                      A
 Frequencies --    228.5455               256.4240               280.8013
 Red. masses --      4.3536                 3.1888                 4.6885
 Frc consts  --      0.1340                 0.1235                 0.2178
 IR Inten    --      0.0723                 0.4253                17.2370

                     13                     14                     15
                      A                      A                      A
 Frequencies --    312.0288               404.5424               407.4401
 Red. masses --      4.0263                 3.3437                 3.6518
 Frc consts  --      0.2310                 0.3224                 0.3572
 IR Inten    --      1.8871                 0.0326                 0.2254

                     16                     17                     18
                      A                      A                      A
 Frequencies --    416.5201               454.7857               480.4654
 Red. masses --      3.9368                 3.3651                 4.1587
 Frc consts  --      0.4024                 0.4101                 0.5656
 IR Inten    --     12.2518                 0.0153                 9.9489

                     19                     20                     21
                      A                      A                      A
 Frequencies --    529.4100               532.8686               549.3969
 Red. masses --      2.4399                 4.2377                 5.2708
 Frc consts  --      0.4029                 0.7090                 0.9373
 IR Inten    --      3.7402                87.6859                22.1560

                     22                     23                     24
                      A                      A                      A
 Frequencies --    582.9365               644.5062               656.6874
 Red. masses --      2.7368                 5.8913                 7.0712
 Frc consts  --      0.5479                 1.4418                 1.7966
 IR Inten    --     47.2807                16.8213                 3.1746

                     25                     26                     27
                      A                      A                      A
 Frequencies --    684.8494               759.8692               762.0772
 Red. masses --      7.0023                 5.1801                 3.3978
 Frc consts  --      1.9350                 1.7622                 1.1626
 IR Inten    --      0.8980                 0.4058                 1.5231

                     28                     29                     30
                      A                      A                      A
 Frequencies --    777.7382               831.3026               860.3808
 Red. masses --      3.0710                 1.2610                 6.5639
 Frc consts  --      1.0945                 0.5134                 2.8628
 IR Inten    --      4.0199                 2.7382                75.4704

                     31                     32                     33
                      A                      A                      A
 Frequencies --    861.6733               881.8167               911.7416
 Red. masses --      1.8292                 1.5943                 1.2497
 Frc consts  --      0.8002                 0.7304                 0.6121
 IR Inten    --     73.0847                83.4982                 0.1888

                     34                     35                     36
                      A                      A                      A
 Frequencies --    955.5853               976.7344              1006.8480
 Red. masses --      6.9098                 2.8753                 1.3558
 Frc consts  --      3.7176                 1.6162                 0.8098
 IR Inten    --     18.8891                33.8912                 0.5581

                     37                     38                     39
                      A                      A                      A
 Frequencies --   1020.4700              1023.3049              1027.3350
 Red. masses --      1.3974                 2.7091                 7.4714
 Frc consts  --      0.8574                 1.6714                 4.6460
 IR Inten    --      2.0072                 2.5592                26.2843

                     40                     41                     42
                      A                      A                      A
 Frequencies --   1033.5261              1039.6832              1082.4227
 Red. masses --      1.3611                 1.4412                 1.6228
 Frc consts  --      0.8566                 0.9178                 1.1202
 IR Inten    --      0.2148                 0.2523                 0.3045

                     43                     44                     45
                      A                      A                      A
 Frequencies --   1091.6807              1110.8678              1143.8872
 Red. masses --      1.4852                 1.3872                 1.2366
 Frc consts  --      1.0429                 1.0086                 0.9533
 IR Inten    --     41.7569                 1.0178                 0.0000

                     46                     47                     48
                      A                      A                      A
 Frequencies --   1150.8033              1152.1828              1164.3987
 Red. masses --      1.3321                 1.3055                 1.6336
 Frc consts  --      1.0394                 1.0211                 1.3050
 IR Inten    --      0.0967                48.0190              1661.3508

                     49                     50                     51
                      A                      A                      A
 Frequencies --   1207.1719              1222.1045              1253.7816
 Red. masses --      1.7280                 2.0113                 1.5924
 Frc consts  --      1.4837                 1.7699                 1.4748
 IR Inten    --     59.0898                28.3156                56.9356

                     52                     53                     54
                      A                      A                      A
 Frequencies --   1272.2884              1282.9620              1313.8000
 Red. masses --      6.7532                 3.4250                 3.3094
 Frc consts  --      6.4406                 3.3216                 3.3655
 IR Inten    --     18.3155                60.1491               250.6105

                     55                     56                     57
                      A                      A                      A
 Frequencies --   1348.6497              1360.3117              1382.5981
 Red. masses --      1.5784                 1.4342                 5.1685
 Frc consts  --      1.6915                 1.5636                 5.8212
 IR Inten    --    123.7671               166.8567               106.0669

                     58                     59                     60
                      A                      A                      A
 Frequencies --   1409.6165              1456.5094              1458.8106
 Red. masses --      2.8400                 1.1900                 2.1980
 Frc consts  --      3.3248                 1.4874                 2.7560
 IR Inten    --   1213.3114                 9.8402                86.5172

                     61                     62                     63
                      A                      A                      A
 Frequencies --   1487.4785              1488.0362              1493.3804
 Red. masses --      2.0132                 1.0361                 1.0410
 Frc consts  --      2.6244                 1.3517                 1.3679
 IR Inten    --    214.2318                 0.0101                27.1512

                     64                     65                     66
                      A                      A                      A
 Frequencies --   1496.0242              1518.2222              1526.7273
 Red. masses --      1.2784                 1.3696                 1.4811
 Frc consts  --      1.6858                 1.8601                 2.0340
 IR Inten    --     35.4247               360.5846               370.2146

                     67                     68                     69
                      A                      A                      A
 Frequencies --   1538.5593              1564.3321              1581.9614
 Red. masses --      1.7008                 4.1292                 2.9919
 Frc consts  --      2.3721                 5.9536                 4.4115
 IR Inten    --      3.9226               539.9739               865.5805

                     70                     71                     72
                      A                      A                      A
 Frequencies --   1620.8337              1648.7027              1673.0280
 Red. masses --      6.7369                 8.0501                 6.1513
 Frc consts  --     10.4277                12.8925                10.1443
 IR Inten    --     10.5392               104.1438                43.9725

                     73                     74                     75
                      A                      A                      A
 Frequencies --   1683.0556              3030.0239              3036.9813
 Red. masses --      6.7140                 1.0381                 1.0409
 Frc consts  --     11.2054                 5.6153                 5.6567
 IR Inten    --    551.2342               110.1723               136.4936

                     76                     77                     78
                      A                      A                      A
 Frequencies --   3081.5758              3083.5106              3165.2356
 Red. masses --      1.1050                 1.1053                 1.0983
 Frc consts  --      6.1822                 6.1917                 6.4832
 IR Inten    --     43.0860                48.6291                 3.2572

                     79                     80                     81
                      A                      A                      A
 Frequencies --   3175.5901              3176.2861              3179.3103
 Red. masses --      1.0893                 1.0961                 1.0924
 Frc consts  --      6.4720                 6.5151                 6.5059
 IR Inten    --     47.7949                39.9105                40.2604

                     82                     83                     84
                      A                      A                      A
 Frequencies --   3204.8036              3222.4190              3223.9451
 Red. masses --      1.0909                 1.0947                 1.0887
 Frc consts  --      6.6012                 6.6972                 6.6668
 IR Inten    --      5.5154                 7.9198                 0.3303

                     85                     86                     87
                      A                      A                      A
 Frequencies --   3240.5336              3242.2320              3243.5752
 Red. masses --      1.0935                 1.0926                 1.0932
 Frc consts  --      6.7657                 6.7671                 6.7763
 IR Inten    --      9.3430                16.7000                 3.7632

 - Thermochemistry -
 -------------------
 Temperature   298.150 Kelvin.  Pressure   1.00000 Atm.
 Atom     1 has atomic number  7 and mass  14.00307

 Molecular mass:   226.12185 amu.
 Principal axes and moments of inertia in atomic units:
                           1         2         3
     Eigenvalues --   848.45641********************
           X            1.00000   0.00053  -0.00000
           Y           -0.00053   1.00000  -0.00000
           Z            0.00000   0.00000   1.00000
 This molecule is an asymmetric top.
 Rotational symmetry number  1.
 Warning -- assumption of classical behavior for rotation
           may cause significant error
 Rotational temperatures (Kelvin)      0.10208     0.00756     0.00705
 Rotational constants (GHZ):           2.12709     0.15758     0.14698
 Zero-point vibrational energy     667247.4 (Joules/Mol)
                                  159.47596 (Kcal/Mol)
 Warning -- explicit consideration of  22 degrees of freedom as
           vibrations may cause significant error
 Vibrational temperatures:     19.63    53.99    95.18   110.40   115.76
          (Kelvin)            136.97   222.97   264.77   291.83   328.83
                              368.94   404.01   448.94   582.05   586.22
                              599.28   654.34   691.28   761.70   766.68
                              790.46   838.72   927.30   944.83   985.35
                             1093.28  1096.46  1118.99  1196.06  1237.90
                             1239.76  1268.74  1311.79  1374.87  1405.30
                             1448.63  1468.23  1472.31  1478.11  1487.01
                             1495.87  1557.36  1570.69  1598.29  1645.80
                             1655.75  1657.73  1675.31  1736.85  1758.34
                             1803.91  1830.54  1845.90  1890.27  1940.41
                             1957.19  1989.25  2028.12  2095.59  2098.90
                             2140.15  2140.95  2148.64  2152.45  2184.38
                             2196.62  2213.64  2250.73  2276.09  2332.02
                             2372.12  2407.11  2421.54  4359.53  4369.54
                             4433.70  4436.48  4554.07  4568.97  4569.97
                             4574.32  4611.00  4636.34  4638.54  4662.41
                             4664.85  4666.78

 Zero-point correction=                           0.254141 (Hartree/Particle)
 Thermal correction to Energy=                    0.269208
 Thermal correction to Enthalpy=                  0.270152
 Thermal correction to Gibbs Free Energy=         0.209439
 Sum of electronic and zero-point Energies=           -722.306878
 Sum of electronic and thermal Energies=              -722.291812
 Sum of electronic and thermal Enthalpies=            -722.290868
 Sum of electronic and thermal Free Energies=         -722.351581

                     E (Thermal)             CV                S
                      KCal/Mol        Cal/Mol-Kelvin    Cal/Mol-Kelvin
 Total                  168.930             56.604            127.782
 Electronic               0.000              0.000              0.000
 Translational            0.889              2.981             42.150
 Rotational               0.889              2.981             33.145
 Vibrational            167.153             50.643             52.487
 Vibration     1          0.593              1.986              7.394
 Vibration     2          0.594              1.982              5.386
 Vibration     3          0.598              1.970              4.265
 Vibration     4          0.599              1.965              3.973
 Vibration     5          0.600              1.962              3.880
 Vibration     6          0.603              1.953              3.550
 Vibration     7          0.620              1.897              2.610
 Vibration     8          0.631              1.862              2.287
 Vibration     9          0.639              1.836              2.107
 Vibration    10          0.651              1.797              1.890
 Vibration    11          0.666              1.752              1.686
 Vibration    12          0.680              1.709              1.529
 Vibration    13          0.700              1.651              1.352
 Vibration    14          0.770              1.460              0.946
 Vibration    15          0.772              1.454              0.936
 Vibration    16          0.780              1.434              0.904
 Vibration    17          0.813              1.350              0.781
 Vibration    18          0.837              1.293              0.709
 Vibration    19          0.884              1.185              0.589
 Vibration    20          0.888              1.177              0.581
 Vibration    21          0.905              1.141              0.545
 Vibration    22          0.940              1.068              0.480

                           ! Non-Optimized Parameters !
 Normal termination of Gaussian 16 at Tue Apr 19 16:08:31 2022.
